ITEM: TIMESTEP
0
ITEM: NUMBER OF ATOMS
500
ITEM: BOX BOUNDS pp pp pp
0.0000000000000000e+00 1.4299999999999999e+01
0.0000000000000000e+00 1.4299999999999999e+01
0.0000000000000000e+00 1.4299999999999999e+01
ITEM: ATOMS id type xs ys zs fx fy fz
1 1 0 0 0 -0.000377212 -3.10862e-15 -4.96825e-15
2 1 0.1 0.1 0 -0.0188339 -2.77556e-16 -5.2458e-15
3 1 0.1 0 0.1 -0.0188339 -3.63598e-15 -6.80012e-16
4 1 0 0.1 0.1 -0.000377212 -1.33227e-15 0
5 1 0.2 0 0 -0.0361585 1.77722e-15 4.44957e-16
6 1 0.3 0.1 0 0.186607 -3.33067e-16 -2.22045e-16
7 1 0.3 0 0.1 0.186607 -1.77636e-15 1.77636e-15
8 1 0.2 0.1 0.1 -0.0361585 -1.69569e-15 6.7741e-16
9 1 0.403497 0 0 -0.683605 0 -2.66454e-15
10 1 0.5 0.1 0 0.642712 -2.55351e-15 1.11022e-15
11 1 0.5 0 0.1 0.642712 -8.88178e-16 2.22045e-15
12 1 0.403497 0.1 0.1 -0.683605 1.66533e-16 -1.7486e-15
13 1 0.6 0 0 -0.0677743 0 8.88178e-16
14 1 0.7 0.1 0 -0.0221516 -1.55431e-15 8.04912e-16
15 1 0.7 0 0.1 -0.0221516 -3.21965e-15 0
16 1 0.6 0.1 0.1 -0.0677743 4.44089e-16 3.08087e-15
17 1 0.8 0 0 -0.000418517 -4.56579e-15 -4.7462e-15
18 1 0.9 0.1 0 -1.33227e-15 -1.44329e-15 0
19 1 0.9 0 0.1 -8.88178e-16 -4.44089e-15 -2.05391e-15
20 1 0.8 0.1 0.1 -0.000418517 1.59595e-16 -2.00534e-15
21 1 0 0.2 0 -0.000377212 7.39686e-15 -3.9968e-15
22 1 0.1 0.3 0 -0.0188339 -2.63678e-15 -7.77156e-16
23 1 0.1 0.2 0.1 -0.0188339 5.71765e-15 4.996e-16
24 1 0 0.3 0.1 -0.000377212 -3.10862e-15 4.44089e-16
25 1 0.2 0.2 0 -0.0361585 3.1251e-15 1.77809e-15
26 1 0.3 0.3 0 0.186607 6.33391e-16 0
27 1 0.3 0.2 0.1 0.186607 2.21351e-15 2.13458e-15
28 1 0.2 0.3 0.1 -0.0361585 -1.90906e-15 4.69243e-16
29 1 0.403497 0.2 0 -0.683605 4.76008e-15 -1.77549e-15
30 1 0.5 0.3 0 0.642712 -4.25853e-15 1.77636e-15
31 1 0.5 0.2 0.1 0.642712 4.86416e-15 3.46684e-15
32 1 0.403497 0.3 0.1 -0.683605 -2.07234e-15 2.22045e-16
33 1 0.6 0.2 0 -0.0677743 3.41394e-15 8.67362e-19
34 1 0.7 0.3 0 -0.0221516 -2.44748e-15 2.9976e-15
35 1 0.7 0.2 0.1 -0.0221516 6.11924e-15 -8.58688e-17
36 1 0.6 0.3 0.1 -0.0677743 -9.82287e-16 -1.33227e-15
37 1 0.8 0.2 0 -0.000418517 6.4948e-15 -2.95597e-15
38 1 0.9 0.3 0 -4.44089e-16 -3.30291e-15 -3.10862e-15
39 1 0.9 0.2 0.1 -2.22045e-15 7.54952e-15 -1.13798e-15
40 1 0.8 0.3 0.1 -0.000418517 -1.49186e-15 2.08167e-17
41 1 0 0.4 0 -0.000377212 -2.06779e-15 -4.88498e-15
42 1 0.1 0.5 0 -0.0188339 5.57887e-15 -4.17721e-15
43 1 0.1 0.4 0.1 -0.0188339 -2.70617e-15 1.29063e-15
44 1 0 0.5 0.1 -0.000377212 4.44089e-15 -2.22045e-15
45 1 0.2 0.4 0 -0.0361585 -2.2083e-15 -1.77549e-15
46 1 0.3 0.5 0 0.186607 1.84119e-15 3.55271e-15
47 1 0.3 0.4 0.1 0.186607 -1.65341e-15 2.10942e-15
48 1 0.2 0.5 0.1 -0.0361585 6.09669e-15 -7.52003e-16
49 1 0.403497 0.4 0 -0.683605 -1.51181e-15 -1.77636e-15
50 1 0.5 0.5 0 0.642712 1.09034e-14 3.55271e-15
51 1 0.5 0.4 0.1 0.642712 -1.59963e-15 1.33227e-15
52 1 0.403497 0.5 0.1 -0.683605 1.13013e-14 -1.88738e-15
53 1 0.6 0.4 0 -0.0677743 -2.44119e-15 -3.55271e-15
54 1 0.7 0.5 0 -0.0221516 -6.39462e-16 2.9976e-15
55 1 0.7 0.4 0.1 -0.0221516 -5.42968e-16 -1.44329e-15
56 1 0.6 0.5 0.1 -0.0677743 1.02067e-15 1.11022e-15
57 1 0.8 0.4 0 -0.000418517 2.77556e-16 -3.1225e-15
58 1 0.9 0.5 0 0 1.77636e-15 1.77636e-15
59 1 0.9 0.4 0.1 -1.33227e-15 -4.44089e-16 -1.33227e-15
60 1 0.8 0.5 0.1 -0.000418517 2.10248e-15 5.75928e-16
61 1 0 0.6 0 -0.000377212 -2.90046e-15 -4.44089e-15
62 1 0.1 0.7 0 -0.0188339 1.58207e-15 -4.88498e-15
63 1 0.1 0.6 0.1 -0.0188339 -6.98053e-15 1.11022e-15
64 1 0 0.7 0.1 -0.000377212 2.22045e-15 8.88178e-16
65 1 0.2 0.6 0 -0.0361585 -4.52763e-15 1.77722e-15
66 1 0.3 0.7 0 0.186607 1.31839e-16 1.22125e-15
67 1 0.3 0.6 0.1 0.186607 -3.12987e-15 2.55351e-15
68 1 0.2 0.7 0.1 -0.0361585 1.02262e-15 3.5822e-16
69 1 0.403497 0.6 0 -0.683605 -1.01468e-14 0
70 1 0.5 0.7 0 0.642712 2.60209e-15 -5.55112e-16
71 1 0.5 0.6 0.1 0.642712 -1.12425e-14 1.11022e-16
72 1 0.403497 0.7 0.1 -0.683605 1.81344e-15 -8.88178e-16
73 1 0.6 0.6 0 -0.0677743 1.88651e-17 0
74 1 0.7 0.7 0 -0.0221516 2.42167e-15 6.66134e-16
75 1 0.7 0.6 0.1 -0.0221516 5.20417e-17 -2.22045e-16
76 1 0.6 0.7 0.1 -0.0677743 1.54347e-15 -2.55351e-15
77 1 0.8 0.6 0 -0.000418517 2.02616e-15 -1.34615e-15
78 1 0.9 0.7 0 -4.44089e-16 3.55271e-15 -2.22045e-15
79 1 0.9 0.6 0.1 -1.33227e-15 8.88178e-16 5.55112e-16
80 1 0.8 0.7 0.1 -0.000418517 3.53884e-15 6.8695e-16
81 1 0 0.8 0 -0.000377212 0 -5.55112e-15
82 1 0.1 0.9 0 -0.0188339 9.15934e-16 -3.02536e-15
83 1 0.1 0.8 0.1 -0.0188339 -2.98372e-16 3.88578e-16
84 1 0 0.9 0.1 -0.000377212 0 -4.44089e-16
85 1 0.2 0.8 0 -0.0361585 1.11022e-16 2.09034e-16
86 1 0.3 0.9 0 0.186607 -8.88178e-16 0
87 1 0.3 0.8 0.1 0.186607 -4.44089e-16 2.86576e-15
88 1 0.2 0.9 0.1 -0.0361585 -4.04191e-16 8.06646e-17
89 1 0.403497 0.8 0 -0.683605 -2.498e-16 -2.7478e-15
90 1 0.5 0.9 0 0.642712 -1.77636e-15 -2.22045e-15
91 1 0.5 0.8 0.1 0.642712 -8.60423e-16 1.65146e-15
92 1 0.403497 0.9 0.1 -0.683605 -9.71445e-16 -5.27356e-16
93 1 0.6 0.8 0 -0.0677743 2.77556e-16 -2.88658e-15
94 1 0.7 0.9 0 -0.0221516 -4.44089e-16 -9.99201e-16
95 1 0.7 0.8 0.1 -0.0221516 -6.73073e-16 -3.1225e-16
96 1 0.6 0.9 0.1 -0.0677743 8.32667e-17 -7.49401e-16
97 1 0.8 0.8 0 -0.000418517 9.71445e-17 -3.70537e-15
98 1 0.9 0.9 0 -8.88178e-16 -1.11022e-16 -3.55271e-15
99 1 0.9 0.8 0.1 0 8.88178e-16 -6.38378e-16
100 1 0.8 0.9 0.1 -0.000418517 7.49401e-16 6.52256e-16
101 1 0 0 0.2 -0.000377212 -1.33227e-15 7.60503e-15
102 1 0.1 0.1 0.2 -0.0188339 -3.88578e-16 7.72993e-15
103 1 0.1 0 0.3 -0.0188339 -9.57567e-16 -2.42861e-15
104 1 0 0.1 0.3 -0.000377212 -1.77636e-15 -3.9968e-15
105 1 0.2 0 0.2 -0.0361585 1.77722e-15 4.74881e-15
106 1 0.3 0.1 0.2 0.186607 -1.11022e-15 1.1241e-15
107 1 0.3 0 0.3 0.186607 0 4.44089e-16
108 1 0.2 0.1 0.3 -0.0361585 -5.85469e-16 -6.85216e-16
109 1 0.403497 0 0.2 -0.683605 0 4.55191e-15
110 1 0.5 0.1 0.2 0.642712 -8.88178e-16 6.1201e-15
111 1 0.5 0 0.3 0.642712 0 -2.66454e-15
112 1 0.403497 0.1 0.3 -0.683605 6.10623e-16 -3.67761e-15
113 1 0.6 0 0.2 -0.0677743 -5.32907e-15 3.88578e-15
114 1 0.7 0.1 0.2 -0.0221516 -1.9984e-15 6.22332e-15
115 1 0.7 0 0.3 -0.0221516 -3.21965e-15 -3.10862e-15
116 1 0.6 0.1 0.3 -0.0677743 -3.88578e-16 3.747e-16
117 1 0.8 0 0.2 -0.000418517 -4.55191e-15 7.18869e-15
118 1 0.9 0.1 0.2 -8.88178e-16 -3.10862e-15 7.54952e-15
119 1 0.9 0 0.3 -4.44089e-16 -3.55271e-15 -4.05231e-15
120 1 0.8 0.1 0.3 -0.000418517 3.88578e-16 -3.20577e-15
121 1 0 0.2 0.2 -0.000377212 4.14946e-15 4.57967e-15
122 1 0.1 0.3 0.2 -0.0188339 -2.47025e-15 5.55112e-15
123 1 0.1 0.2 0.3 -0.0188339 2.94209e-15 -1.15186e-15
124 1 0 0.3 0.3 -0.000377212 0 -1.33227e-15
125 1 0.2 0.2 0.2 -0.0361585 9.87925e-16 4.45997e-15
126 1 0.3 0.3 0.2 0.186607 2.40281e-15 -1.72085e-15
127 1 0.3 0.2 0.3 0.186607 4.85723e-17 5.64652e-15
128 1 0.2 0.3 0.3 -0.0361585 2.25514e-17 2.29504e-15
129 1 0.403497 0.2 0.2 -0.683605 2.22045e-15 5.99347e-16
130 1 0.5 0.3 0.2 0.642712 -2.32258e-15 4.14946e-15
131 1 0.5 0.2 0.3 0.642712 3.95517e-15 4.77049e-16
132 1 0.403497 0.3 0.3 -0.683605 7.97973e-17 -1.07553e-15
133 1 0.6 0.2 0.2 -0.0677743 1.58207e-15 4.55452e-15
134 1 0.7 0.3 0.2 -0.0221516 -1.22949e-16 4.12084e-15
135 1 0.7 0.2 0.3 -0.0221516 4.38451e-15 7.47666e-16
136 1 0.6 0.3 0.3 -0.0677743 5.89806e-17 -1.67227e-15
137 1 0.8 0.2 0.2 -0.000418517 4.08007e-15 4.38538e-15
138 1 0.9 0.3 0.2 -4.44089e-16 -2.63678e-16 7.54952e-15
139 1 0.9 0.2 0.3 -2.66454e-15 4.44089e-15 6.66134e-16
140 1 0.8 0.3 0.3 -0.000418517 7.35523e-16 -4.996e-16
141 1 0 0.4 0.2 -0.000377212 -2.45637e-15 6.77236e-15
142 1 0.1 0.5 0.2 -0.0188339 4.28824e-15 5.2458e-15
143 1 0.1 0.4 0.3 -0.0188339 -1.93595e-15 1.31839e-15
144 1 0 0.5 0.3 -0.000377212 4.44089e-16 -2.22045e-15
145 1 0.2 0.4 0.2 -0.0361585 -2.71571e-15 7.62151e-15
146 1 0.3 0.5 0.2 0.186607 3.39377e-15 -2.60902e-15
147 1 0.3 0.4 0.3 0.186607 -1.39559e-15 2.08167e-15
148 1 0.2 0.5 0.3 -0.0361585 3.2474e-15 -1.02175e-15
149 1 0.403497 0.4 0.2 -0.683605 -4.56666e-16 3.94129e-15
150 1 0.5 0.5 0.2 0.642712 9.69082e-15 2.28983e-15
151 1 0.5 0.4 0.3 0.642712 -2.13111e-15 -2.85882e-15
152 1 0.403497 0.5 0.3 -0.683605 7.79758e-15 -3.4972e-15
153 1 0.6 0.4 0.2 -0.0677743 -1.45825e-15 2.34535e-15
154 1 0.7 0.5 0.2 -0.0221516 -1.33162e-15 7.61804e-15
155 1 0.7 0.4 0.3 -0.0221516 -3.20056e-16 -2.56045e-15
156 1 0.6 0.5 0.3 -0.0677743 7.80626e-17 6.93889e-16
157 1 0.8 0.4 0.2 -0.000418517 -1.04083e-15 5.48173e-15
158 1 0.9 0.5 0.2 -2.22045e-15 -8.32667e-16 6.66134e-15
159 1 0.9 0.4 0.3 -2.66454e-15 4.44089e-16 -2.10942e-15
160 1 0.8 0.5 0.3 -0.000418517 -2.39392e-15 -8.32667e-16
161 1 0 0.6 0.2 -0.000377212 -1.81799e-15 5.66214e-15
162 1 0.1 0.7 0.2 -0.0188339 1.65146e-15 5.35683e-15
163 1 0.1 0.6 0.3 -0.0188339 -3.48332e-15 -2.73392e-15
164 1 0 0.7 0.3 -0.000377212 2.66454e-15 -1.77636e-15
165 1 0.2 0.6 0.2 -0.0361585 -4.56514e-15 4.17982e-15
166 1 0.3 0.7 0.2 0.186607 2.31065e-15 -2.12417e-15
167 1 0.3 0.6 0.3 0.186607 -1.21431e-17 4.03844e-15
168 1 0.2 0.7 0.3 -0.0361585 1.30972e-15 -7.2338e-16
169 1 0.403497 0.6 0.2 -0.683605 -1.07789e-14 2.1233e-15
170 1 0.5 0.7 0.2 0.642712 2.2482e-15 5.28657e-15
171 1 0.5 0.6 0.3 0.642712 -9.38138e-15 -3.17801e-15
172 1 0.403497 0.7 0.3 -0.683605 5.0307e-16 -1.88044e-15
173 1 0.6 0.6 0.2 -0.0677743 -3.88361e-16 -9.15934e-16
174 1 0.7 0.7 0.2 -0.0221516 2.94209e-15 5.2857e-15
175 1 0.7 0.6 0.3 -0.0221516 1.67748e-15 -3.85109e-15
176 1 0.6 0.7 0.3 -0.0677743 2.69576e-15 -3.37924e-15
177 1 0.8 0.6 0.2 -0.000418517 4.71845e-16 5.9952e-15
178 1 0.9 0.7 0.2 4.44089e-16 4.01068e-15 8.88178e-15
179 1 0.9 0.6 0.3 -4.44089e-16 4.88498e-15 -9.4369e-16
180 1 0.8 0.7 0.3 -0.000418517 2.0331e-15 9.02056e-16
181 1 0 0.8 0.2 -0.000377212 -1.47105e-15 7.32747e-15
182 1 0.1 0.9 0.2 -0.0188339 1.38778e-17 6.31439e-15
183 1 0.1 0.8 0.3 -0.0188339 5.89806e-16 -1.15186e-15
184 1 0 0.9 0.3 -0.000377212 0 -3.55271e-15
185 1 0.2 0.8 0.2 -0.0361585 -1.27676e-15 6.63618e-15
186 1 0.3 0.9 0.2 0.186607 -1.33227e-15 3.9968e-15
187 1 0.3 0.8 0.3 0.186607 -2.70617e-16 2.59515e-15
188 1 0.2 0.9 0.3 -0.0361585 -3.34802e-16 -1.99493e-16
189 1 0.403497 0.8 0.2 -0.683605 1.02696e-15 1.59595e-15
190 1 0.5 0.9 0.2 0.642712 -4.44089e-16 7.10543e-15
191 1 0.5 0.8 0.3 0.642712 5.82867e-16 -1.07553e-15
192 1 0.403497 0.9 0.3 -0.683605 -1.30451e-15 -2.96985e-15
193 1 0.6 0.8 0.2 -0.0677743 8.32667e-17 3.78864e-15
194 1 0.7 0.9 0.2 -0.0221516 8.88178e-16 6.54945e-15
195 1 0.7 0.8 0.3 -0.0221516 2.70617e-16 -2.34535e-15
196 1 0.6 0.9 0.3 -0.0677743 -1.27676e-15 -3.27516e-15
197 1 0.8 0.8 0.2 -0.000418517 9.71445e-17 5.89806e-15
198 1 0.9 0.9 0.2 0 -9.71445e-17 4.44089e-15
199 1 0.9 0.8 0.3 -8.88178e-16 4.44089e-16 -1.36002e-15
200 1 0.8 0.9 0.3 -0.000418517 -2.77556e-16 -9.02056e-16
201 1 0 0 0.4 -0.000377212 -2.22045e-15 -2.44249e-15
202 1 0.1 0.1 0.4 -0.0188339 -1.16573e-15 -1.97065e-15
203 1 0.1 0 0.5 -0.0188339 -9.78384e-16 4.23273e-15
204 1 0 0.1 0.5 -0.000377212 -1.33227e-15 4.44089e-15
205 1 0.2 0 0.4 -0.0361585 1.77722e-15 -2.80331e-15
206 1 0.3 0.1 0.4 0.186607 -4.44089e-16 -2.11636e-15
207 1 0.3 0 0.5 0.186607 8.88178e-16 2.66454e-15
208 1 0.2 0.1 0.5 -0.0361585 -6.96491e-16 7.96412e-15
209 1 0.403497 0 0.4 -0.683605 -1.77636e-15 -2.10942e-15
210 1 0.5 0.1 0.4 0.642712 -8.88178e-16 -1.63064e-15
211 1 0.5 0 0.5 0.642712 -8.88178e-16 1.19904e-14
212 1 0.403497 0.1 0.5 -0.683605 5.55112e-17 1.07553e-14
213 1 0.6 0 0.4 -0.0677743 -3.55271e-15 -4.71845e-16
214 1 0.7 0.1 0.4 -0.0221516 5.55112e-16 -2.498e-16
215 1 0.7 0 0.5 -0.0221516 -5.55112e-16 -8.88178e-16
216 1 0.6 0.1 0.5 -0.0677743 -1.05471e-15 4.16334e-15
217 1 0.8 0 0.4 -0.000418517 -4.53804e-15 -1.38778e-16
218 1 0.9 0.1 0.4 -8.88178e-16 -6.38378e-16 -1.33227e-15
219 1 0.9 0 0.5 -4.44089e-16 -1.33227e-15 2.77556e-16
220 1 0.8 0.1 0.5 -0.000418517 1.59595e-16 5.20417e-16
221 1 0 0.2 0.4 -0.000377212 5.57887e-15 -1.4988e-15
222 1 0.1 0.3 0.4 -0.0188339 -2.88658e-15 -3.48332e-15
223 1 0.1 0.2 0.5 -0.0188339 3.38618e-15 5.45397e-15
224 1 0 0.3 0.5 -0.000377212 -3.10862e-15 1.33227e-15
225 1 0.2 0.2 0.4 -0.0361585 2.68102e-15 -1.64712e-15
226 1 0.3 0.3 0.4 0.186607 5.60533e-16 -3.31094e-15
227 1 0.3 0.2 0.5 0.186607 1.67921e-15 4.88672e-15
228 1 0.2 0.3 0.5 -0.0361585 -1.69829e-15 3.04791e-15
229 1 0.403497 0.2 0.4 -0.683605 3.89966e-15 -1.44893e-15
230 1 0.5 0.3 0.4 0.642712 -3.01994e-15 3.18105e-16
231 1 0.5 0.2 0.5 0.642712 3.96905e-15 1.27624e-14
232 1 0.403497 0.3 0.5 -0.683605 -1.93595e-15 7.95891e-15
233 1 0.6 0.2 0.4 -0.0677743 3.58047e-15 1.90711e-15
234 1 0.7 0.3 0.4 -0.0221516 -2.00339e-15 -3.40093e-15
235 1 0.7 0.2 0.5 -0.0221516 3.64899e-15 -9.6971e-16
236 1 0.6 0.3 0.5 -0.0677743 -1.67227e-15 -2.93515e-15
237 1 0.8 0.2 0.4 -0.000418517 5.46785e-15 -1.1241e-15
238 1 0.9 0.3 0.4 -8.88178e-16 -1.38778e-15 8.88178e-16
239 1 0.9 0.2 0.5 -1.77636e-15 5.77316e-15 -3.33067e-16
240 1 0.8 0.3 0.5 -0.000418517 -1.4086e-15 4.09395e-16
241 1 0 0.4 0.4 -0.000377212 -3.05311e-16 -1.13798e-15
242 1 0.1 0.5 0.4 -0.0188339 2.40086e-15 -8.04912e-16
243 1 0.1 0.4 0.5 -0.0188339 -1.02696e-15 2.6229e-15
244 1 0 0.5 0.5 -0.000377212 2.22045e-15 1.77636e-15
245 1 0.2 0.4 0.4 -0.0361585 -1.60549e-15 -3.00975e-16
246 1 0.3 0.5 0.4 0.186607 2.30263e-15 -5.09423e-15
247 1 0.3 0.4 0.5 0.186607 -7.08635e-16 3.05311e-15
248 1 0.2 0.5 0.5 -0.0361585 3.85456e-15 4.47732e-15
249 1 0.403497 0.4 0.4 -0.683605 -1.23599e-16 -8.24427e-16
250 1 0.5 0.5 0.4 0.642712 7.60568e-15 -1.77918e-15
251 1 0.5 0.4 0.5 0.642712 -9.46292e-16 8.59035e-15
252 1 0.403497 0.5 0.5 -0.683605 8.66841e-15 7.09155e-15
253 1 0.6 0.4 0.4 -0.0677743 -5.97829e-16 -1.88434e-16
254 1 0.7 0.5 0.4 -0.0221516 -1.9301e-15 -4.44957e-16
255 1 0.7 0.4 0.5 -0.0221516 1.65666e-16 -1.70003e-15
256 1 0.6 0.5 0.5 -0.0677743 1.97238e-15 1.23512e-15
257 1 0.8 0.4 0.4 -0.000418517 -3.19189e-16 -6.245e-16
258 1 0.9 0.5 0.4 0 -1.1241e-15 1.33227e-15
259 1 0.9 0.4 0.5 -1.77636e-15 4.44089e-16 -1.97065e-15
260 1 0.8 0.5 0.5 -0.000418517 -1.38778e-17 -1.60288e-15
261 1 0 0.6 0.4 -0.000377212 -1.31839e-15 -1.13798e-15
262 1 0.1 0.7 0.4 -0.0188339 8.74301e-16 -2.96985e-15
263 1 0.1 0.6 0.5 -0.0188339 -5.50254e-15 6.82787e-15
264 1 0 0.7 0.5 -0.000377212 8.88178e-16 8.88178e-16
265 1 0.2 0.6 0.4 -0.0361585 -4.2685e-15 1.41987e-15
266 1 0.3 0.7 0.4 0.186607 5.20417e-16 -2.94643e-15
267 1 0.3 0.6 0.5 0.186607 -1.49186e-15 3.92741e-15
268 1 0.2 0.7 0.5 -0.0361585 1.44849e-15 2.72178e-15
269 1 0.403497 0.6 0.4 -0.683605 -7.16029e-15 -4.9136e-16
270 1 0.5 0.7 0.4 0.642712 2.38004e-15 -7.02563e-17
271 1 0.5 0.6 0.5 0.642712 -9.44383e-15 1.05332e-14
272 1 0.403497 0.7 0.5 -0.683605 7.77156e-16 7.61197e-15
273 1 0.6 0.6 0.4 -0.0677743 1.52504e-15 -1.63172e-15
274 1 0.7 0.7 0.4 -0.0221516 1.14839e-15 -3.34628e-15
275 1 0.7 0.6 0.5 -0.0221516 -5.10009e-16 -3.26128e-16
276 1 0.6 0.7 0.5 -0.0677743 1.4988e-15 -2.83801e-15
277 1 0.8 0.6 0.4 -0.000418517 -6.38378e-16 -9.15934e-16
278 1 0.9 0.7 0.4 8.88178e-16 7.77156e-16 8.88178e-16
279 1 0.9 0.6 0.5 0 4.44089e-16 1.30451e-15
280 1 0.8 0.7 0.5 -0.000418517 3.08087e-15 6.245e-17
281 1 0 0.8 0.4 -0.000377212 -1.01308e-15 -1.44329e-15
282 1 0.1 0.9 0.4 -0.0188339 1.38778e-17 -7.91034e-16
283 1 0.1 0.8 0.5 -0.0188339 -6.52256e-16 3.85803e-15
284 1 0 0.9 0.5 -0.000377212 -1.33227e-15 8.88178e-16
285 1 0.2 0.8 0.4 -0.0361585 -1.58207e-15 1.66533e-16
286 1 0.3 0.9 0.4 0.186607 -2.22045e-15 4.44089e-16
287 1 0.3 0.8 0.5 0.186607 9.02056e-17 3.55965e-15
288 1 0.2 0.9 0.5 -0.0361585 -5.70724e-16 3.9118e-15
289 1 0.403497 0.8 0.4 -0.683605 1.22125e-15 -1.05471e-15
290 1 0.5 0.9 0.4 0.642712 -4.44089e-16 8.88178e-16
291 1 0.5 0.8 0.5 0.642712 7.63278e-17 1.12826e-14
292 1 0.403497 0.9 0.5 -0.683605 -1.51268e-15 5.63438e-15
293 1 0.6 0.8 0.4 -0.0677743 3.60822e-16 9.85323e-16
294 1 0.7 0.9 0.4 -0.0221516 2.22045e-15 7.77156e-16
295 1 0.7 0.8 0.5 -0.0221516 -9.64506e-16 -1.99146e-15
296 1 0.6 0.9 0.5 -0.0677743 -1.11022e-15 -3.85803e-15
297 1 0.8 0.8 0.4 -0.000418517 -6.80012e-16 -8.18789e-16
298 1 0.9 0.9 0.4 8.88178e-16 8.04912e-16 -2.66454e-15
299 1 0.9 0.8 0.5 -8.88178e-16 4.44089e-16 8.60423e-16
300 1 0.8 0.9 0.5 -0.000418517 -1.38778e-15 1.56819e-15
301 1 0 0 0.6 -0.000377212 -1.77636e-15 -2.96985e-15
302 1 0.1 0.1 0.6 -0.0188339 -2.26208e-15 -6.57807e-15
303 1 0.1 0 0.7 -0.0188339 -9.57567e-16 2.91434e-15
304 1 0 0.1 0.7 -0.000377212 -1.77636e-15 2.66454e-15
305 1 0.2 0 0.6 -0.0361585 1.77722e-15 -5.22325e-15
306 1 0.3 0.1 0.6 0.186607 0 -7.45931e-15
307 1 0.3 0 0.7 0.186607 0 1.33227e-15
308 1 0.2 0.1 0.7 -0.0361585 -1.4138e-16 2.94036e-15
309 1 0.403497 0 0.6 -0.683605 -1.77636e-15 -1.02973e-14
310 1 0.5 0.1 0.6 0.642712 5.55112e-16 -1.25316e-14
311 1 0.5 0 0.7 0.642712 0 3.10862e-15
312 1 0.403497 0.1 0.7 -0.683605 -3.33067e-16 8.88178e-16
313 1 0.6 0 0.6 -0.0677743 0 -2.27596e-15
314 1 0.7 0.1 0.6 -0.0221516 -6.66134e-16 -2.16147e-15
315 1 0.7 0 0.7 -0.0221516 -4.10783e-15 8.88178e-16
316 1 0.6 0.1 0.7 -0.0677743 4.44089e-16 4.02456e-15
317 1 0.8 0 0.6 -0.000418517 -2.6229e-15 1.94289e-15
318 1 0.9 0.1 0.6 0 -1.67921e-15 -1.33227e-15
319 1 0.9 0 0.7 -1.77636e-15 -4.44089e-15 8.32667e-16
320 1 0.8 0.1 0.7 -0.000418517 -6.10623e-16 1.20737e-15
321 1 0 0.2 0.6 -0.000377212 5.75928e-15 -3.66374e-15
322 1 0.1 0.3 0.6 -0.0188339 -2.15106e-15 -4.64906e-15
323 1 0.1 0.2 0.7 -0.0188339 5.60663e-15 2.48412e-15
324 1 0 0.3 0.7 -0.000377212 -3.10862e-15 3.10862e-15
325 1 0.2 0.2 0.6 -0.0361585 2.93082e-15 -4.35697e-15
326 1 0.3 0.3 0.6 0.186607 -7.63712e-16 -2.42211e-15
327 1 0.3 0.2 0.7 0.186607 1.77636e-15 3.99507e-15
328 1 0.2 0.3 0.7 -0.0361585 -3.99333e-15 1.98279e-15
329 1 0.403497 0.2 0.6 -0.683605 3.85803e-15 -9.82829e-15
330 1 0.5 0.3 0.6 0.642712 -4.23771e-15 -9.85475e-15
331 1 0.5 0.2 0.7 0.642712 5.22499e-15 4.23099e-15
332 1 0.403497 0.3 0.7 -0.683605 -1.27155e-15 8.60423e-16
333 1 0.6 0.2 0.6 -0.0677743 1.47105e-15 2.18011e-15
334 1 0.7 0.3 0.6 -0.0221516 -2.43599e-15 1.0443e-15
335 1 0.7 0.2 0.7 -0.0221516 6.54945e-15 2.56566e-15
336 1 0.6 0.3 0.7 -0.0677743 -1.7434e-15 2.35922e-16
337 1 0.8 0.2 0.6 -0.000418517 5.60663e-15 -1.91513e-15
338 1 0.9 0.3 0.6 -1.33227e-15 -2.26208e-15 3.55271e-15
339 1 0.9 0.2 0.7 -2.66454e-15 6.21725e-15 4.32987e-15
340 1 0.8 0.3 0.7 -0.000418517 -1.06859e-15 1.33921e-15
341 1 0 0.4 0.6 -0.000377212 -9.29812e-16 -2.02616e-15
342 1 0.1 0.5 0.6 -0.0188339 5.09315e-15 -4.92661e-15
343 1 0.1 0.4 0.7 -0.0188339 -5.34295e-16 3.15026e-15
344 1 0 0.5 0.7 -0.000377212 4.44089e-16 2.66454e-15
345 1 0.2 0.4 0.6 -0.0361585 -7.31186e-16 -1.09049e-15
346 1 0.3 0.5 0.6 0.186607 2.40671e-15 -2.12482e-15
347 1 0.3 0.4 0.7 0.186607 -6.33174e-17 4.3715e-15
348 1 0.2 0.5 0.7 -0.0361585 3.74527e-15 4.92488e-15
349 1 0.403497 0.4 0.6 -0.683605 -6.00648e-16 -8.99042e-15
350 1 0.5 0.5 0.6 0.642712 8.49559e-15 -1.10482e-14
351 1 0.5 0.4 0.7 0.642712 -1.65926e-15 4.39926e-15
352 1 0.403497 0.5 0.7 -0.683605 7.8236e-15 6.80012e-16
353 1 0.6 0.4 0.6 -0.0677743 -1.10437e-15 2.39934e-15
354 1 0.7 0.5 0.6 -0.0221516 -1.43332e-16 -1.25421e-15
355 1 0.7 0.4 0.7 -0.0221516 5.95878e-16 4.55191e-15
356 1 0.6 0.5 0.7 -0.0677743 1.04083e-16 4.38538e-15
357 1 0.8 0.4 0.6 -0.000418517 -4.16334e-16 6.245e-16
358 1 0.9 0.5 0.6 -1.77636e-15 2.63678e-16 4.44089e-16
359 1 0.9 0.4 0.7 -4.44089e-16 4.44089e-16 3.2474e-15
360 1 0.8 0.5 0.7 -0.000418517 -1.01308e-15 4.58661e-15
361 1 0 0.6 0.6 -0.000377212 -1.34615e-15 -2.72005e-15
362 1 0.1 0.7 0.6 -0.0188339 9.02056e-16 -1.70697e-15
363 1 0.1 0.6 0.7 -0.0188339 -3.89966e-15 3.58047e-15
364 1 0 0.7 0.7 -0.000377212 1.33227e-15 3.55271e-15
365 1 0.2 0.6 0.6 -0.0361585 -3.79623e-15 -9.23523e-16
366 1 0.3 0.7 0.6 0.186607 9.85323e-16 -3.86843e-15
367 1 0.3 0.6 0.7 0.186607 -1.37043e-15 4.6213e-15
368 1 0.2 0.7 0.7 -0.0361585 8.65627e-16 2.87097e-15
369 1 0.403497 0.6 0.6 -0.683605 -1.01562e-14 -8.62266e-15
370 1 0.5 0.7 0.6 0.642712 2.43902e-15 -7.47145e-15
371 1 0.5 0.6 0.7 0.642712 -8.91474e-15 4.19109e-15
372 1 0.403497 0.7 0.7 -0.683605 1.87697e-15 4.44089e-16
373 1 0.6 0.6 0.6 -0.0677743 1.42898e-15 3.96167e-15
374 1 0.7 0.7 0.6 -0.0221516 1.16573e-15 -6.17562e-16
375 1 0.7 0.6 0.7 -0.0221516 1.20737e-15 1.54043e-15
376 1 0.6 0.7 0.7 -0.0677743 9.29812e-16 -1.54043e-15
377 1 0.8 0.6 0.6 -0.000418517 4.57967e-16 -1.06859e-15
378 1 0.9 0.7 0.6 4.44089e-16 2.53964e-15 3.9968e-15
379 1 0.9 0.6 0.7 -1.33227e-15 2.66454e-15 4.35763e-15
380 1 0.8 0.7 0.7 -0.000418517 2.04003e-15 2.67841e-15
381 1 0 0.8 0.6 -0.000377212 -1.40166e-15 -1.13798e-15
382 1 0.1 0.9 0.6 -0.0188339 -1.30451e-15 -2.26208e-15
383 1 0.1 0.8 0.7 -0.0188339 5.89806e-16 2.40086e-15
384 1 0 0.9 0.7 -0.000377212 4.44089e-16 1.33227e-15
385 1 0.2 0.8 0.6 -0.0361585 -8.60423e-16 -2.28116e-15
386 1 0.3 0.9 0.6 0.186607 -2.66454e-15 0
387 1 0.3 0.8 0.7 0.186607 -2.70617e-16 4.44089e-15
388 1 0.2 0.9 0.7 -0.0361585 -7.78891e-16 3.46771e-15
389 1 0.403497 0.8 0.6 -0.683605 6.38378e-16 -9.17322e-15
390 1 0.5 0.9 0.6 0.642712 -4.44089e-16 -7.54952e-15
391 1 0.5 0.8 0.7 0.642712 1.07553e-15 2.66454e-15
392 1 0.403497 0.9 0.7 -0.683605 4.996e-16 -6.66134e-16
393 1 0.6 0.8 0.6 -0.0677743 -3.33067e-16 3.73312e-15
394 1 0.7 0.9 0.6 -0.0221516 1.77636e-15 3.43822e-15
395 1 0.7 0.8 0.7 -0.0221516 -1.06165e-15 1.20043e-15
396 1 0.6 0.9 0.7 -0.0677743 5.55112e-17 -1.41553e-15
397 1 0.8 0.8 0.6 -0.000418517 3.19189e-16 8.46545e-16
398 1 0.9 0.9 0.6 0 -9.71445e-17 1.77636e-15
399 1 0.9 0.8 0.7 0 8.88178e-16 3.96905e-15
400 1 0.8 0.9 0.7 -0.000418517 5.96745e-16 3.56659e-15
401 1 0 0 0.8 -0.000377212 -3.55271e-15 -2.498e-16
402 1 0.1 0.1 0.8 -0.0188339 -1.29063e-15 -1.63758e-15
403 1 0.1 0 0.9 -0.0188339 -1.8735e-15 -2.22045e-16
404 1 0 0.1 0.9 -0.000377212 -1.33227e-15 0
405 1 0.2 0 0.8 -0.0361585 1.77722e-15 -2.498e-16
406 1 0.3 0.1 0.8 0.186607 -5.55112e-16 -7.84095e-16
407 1 0.3 0 0.9 0.186607 -8.88178e-16 -1.33227e-15
408 1 0.2 0.1 0.9 -0.0361585 -1.96891e-16 -1.47278e-15
409 1 0.403497 0 0.8 -0.683605 0 -9.71445e-16
410 1 0.5 0.1 0.8 0.642712 -1.55431e-15 6.245e-17
411 1 0.5 0 0.9 0.642712 -8.88178e-16 -4.44089e-16
412 1 0.403497 0.1 0.9 -0.683605 -1.27676e-15 -1.7486e-15
413 1 0.6 0 0.8 -0.0677743 -3.55271e-15 9.71445e-16
414 1 0.7 0.1 0.8 -0.0221516 -1.33227e-15 6.59195e-16
415 1 0.7 0 0.9 -0.0221516 -2.33147e-15 -4.44089e-16
416 1 0.6 0.1 0.9 -0.0677743 4.44089e-16 1.40166e-15
417 1 0.8 0 0.8 -0.000418517 -4.56579e-15 4.44089e-16
418 1 0.9 0.1 0.8 4.44089e-16 -7.21645e-16 1.77636e-15
419 1 0.9 0 0.9 -1.77636e-15 -5.32907e-15 -1.55431e-15
420 1 0.8 0.1 0.9 -0.000418517 -7.28584e-16 -8.39606e-16
421 1 0 0.2 0.8 -0.000377212 6.18949e-15 3.88578e-16
422 1 0.1 0.3 0.8 -0.0188339 -2.8727e-15 -3.46945e-16
423 1 0.1 0.2 0.9 -0.0188339 5.55112e-15 -3.67761e-15
424 1 0 0.3 0.9 -0.000377212 -2.66454e-15 -1.77636e-15
425 1 0.2 0.2 0.8 -0.0361585 2.84755e-15 2.59233e-15
426 1 0.3 0.3 0.8 0.186607 5.68556e-16 -3.12684e-16
427 1 0.3 0.2 0.9 0.186607 2.62984e-15 3.11209e-15
428 1 0.2 0.3 0.9 -0.0361585 -3.97425e-15 1.99493e-16
429 1 0.403497 0.2 0.8 -0.683605 3.77476e-15 -5.24971e-16
430 1 0.5 0.3 0.8 0.642712 -2.82218e-15 1.27524e-15
431 1 0.5 0.2 0.9 0.642712 4.26742e-15 -7.30319e-16
432 1 0.403497 0.3 0.9 -0.683605 -1.26635e-15 -1.81799e-15
433 1 0.6 0.2 0.8 -0.0677743 1.83187e-15 2.01878e-15
434 1 0.7 0.3 0.8 -0.0221516 -1.9919e-15 -7.28584e-16
435 1 0.7 0.2 0.9 -0.0221516 5.19636e-15 -1.34441e-15
436 1 0.6 0.3 0.9 -0.0677743 -1.71738e-15 -2.42861e-15
437 1 0.8 0.2 0.8 -0.000418517 5.4956e-15 -1.80411e-16
438 1 0.9 0.3 0.8 -4.44089e-16 -1.17961e-15 2.66454e-15
439 1 0.9 0.2 0.9 -8.88178e-16 6.21725e-15 -1.11022e-15
440 1 0.8 0.3 0.9 -0.000418517 -1.48492e-15 -1.70003e-15
441 1 0 0.4 0.8 -0.000377212 -3.19189e-16 -1.13798e-15
442 1 0.1 0.5 0.8 -0.0188339 2.85882e-15 1.01308e-15
443 1 0.1 0.4 0.9 -0.0188339 -1.02002e-15 -3.3723e-15
444 1 0 0.5 0.9 -0.000377212 8.88178e-16 -2.66454e-15
445 1 0.2 0.4 0.8 -0.0361585 -1.17528e-15 6.63315e-16
446 1 0.3 0.5 0.8 0.186607 2.8508e-15 -9.03574e-16
447 1 0.3 0.4 0.9 0.186607 -5.21284e-16 -1.56125e-17
448 1 0.2 0.5 0.9 -0.0361585 3.71925e-15 -1.28543e-15
449 1 0.403497 0.4 0.8 -0.683605 -1.56559e-16 -1.08637e-16
450 1 0.5 0.5 0.8 0.642712 9.82786e-15 5.39933e-17
451 1 0.5 0.4 0.9 0.642712 -1.24293e-15 -2.25861e-15
452 1 0.403497 0.5 0.9 -0.683605 7.79064e-15 -2.00881e-15
453 1 0.6 0.4 0.8 -0.0677743 -2.43664e-15 1.01156e-15
454 1 0.7 0.5 0.8 -0.0221516 -1.43332e-16 5.25621e-16
455 1 0.7 0.4 0.9 -0.0221516 -3.47812e-16 -1.98452e-15
456 1 0.6 0.5 0.9 -0.0677743 1.41033e-15 -4.96131e-16
457 1 0.8 0.4 0.8 -0.000418517 5.55112e-16 2.498e-16
458 1 0.9 0.5 0.8 4.44089e-16 6.245e-16 2.22045e-15
459 1 0.9 0.4 0.9 0 0 -2.16493e-15
460 1 0.8 0.5 0.9 -0.000418517 -5.96745e-16 -1.11716e-15
461 1 0 0.6 0.8 -0.000377212 -7.91034e-16 -1.72085e-15
462 1 0.1 0.7 0.8 -0.0188339 -8.60423e-16 -2.1233e-15
463 1 0.1 0.6 0.9 -0.0188339 -3.41394e-15 -8.04912e-16
464 1 0 0.7 0.9 -0.000377212 8.88178e-16 -8.88178e-16
465 1 0.2 0.6 0.8 -0.0361585 -3.35214e-15 4.27197e-15
466 1 0.3 0.7 0.8 0.186607 5.41234e-16 -2.5327e-15
467 1 0.3 0.6 0.9 0.186607 -1.34441e-15 1.95503e-15
468 1 0.2 0.7 0.9 -0.0361585 8.65627e-16 2.93168e-16
469 1 0.403497 0.6 0.8 -0.683605 -9.04593e-15 1.25833e-15
470 1 0.5 0.7 0.8 0.642712 6.76542e-16 1.27502e-15
471 1 0.5 0.6 0.9 0.642712 -8.46545e-15 -7.87564e-16
472 1 0.403497 0.7 0.9 -0.683605 2.26555e-15 4.16334e-17
473 1 0.6 0.6 0.8 -0.0677743 1.51225e-15 3.81205e-16
474 1 0.7 0.7 0.8 -0.0221516 1.1588e-15 -2.50494e-15
475 1 0.7 0.6 0.9 -0.0221516 7.89299e-16 -2.3731e-15
476 1 0.6 0.7 0.9 -0.0677743 9.19403e-16 -4.1217e-15
477 1 0.8 0.6 0.8 -0.000418517 1.13798e-15 -1.38778e-17
478 1 0.9 0.7 0.8 4.44089e-16 1.66533e-15 3.10862e-15
479 1 0.9 0.6 0.9 1.33227e-15 2.66454e-15 -1.05471e-15
480 1 0.8 0.7 0.9 -0.000418517 2.04697e-15 2.38004e-15
481 1 0 0.8 0.8 -0.000377212 -5.27356e-16 2.77556e-17
482 1 0.1 0.9 0.8 -0.0188339 -1.30451e-15 5.27356e-16
483 1 0.1 0.8 0.9 -0.0188339 -1.16573e-15 -1.88738e-15
484 1 0 0.9 0.9 -0.000377212 -4.44089e-16 -8.88178e-16
485 1 0.2 0.8 0.8 -0.0361585 1.94289e-16 1.23512e-15
486 1 0.3 0.9 0.8 0.186607 -2.22045e-15 8.88178e-16
487 1 0.3 0.8 0.9 0.186607 2.08167e-16 1.83881e-15
488 1 0.2 0.9 0.9 -0.0361585 -1.5439e-16 -2.51535e-16
489 1 0.403497 0.8 0.8 -0.683605 -8.32667e-17 -1.70697e-15
490 1 0.5 0.9 0.8 0.642712 8.88178e-16 1.33227e-15
491 1 0.5 0.8 0.9 0.642712 1.11716e-15 4.30211e-16
492 1 0.403497 0.9 0.9 -0.683605 -3.60822e-16 -1.91513e-15
493 1 0.6 0.8 0.8 -0.0677743 4.996e-16 3.33067e-16
494 1 0.7 0.9 0.8 -0.0221516 3.55271e-15 1.22125e-15
495 1 0.7 0.8 0.9 -0.0221516 -1.02696e-15 -1.76248e-15
496 1 0.6 0.9 0.9 -0.0677743 -1.13798e-15 -3.30291e-15
497 1 0.8 0.8 0.8 -0.000418517 2.498e-16 1.52656e-16
498 1 0.9 0.9 0.8 -8.88178e-16 -9.99201e-16 8.88178e-16
499 1 0.9 0.8 0.9 8.88178e-16 8.88178e-16 1.69309e-15
500 1 0.8 0.9 0.9 -0.000418517 3.05311e-16 2.20657e-15
ITEM: TIMESTEP
1
ITEM: NUMBER OF ATOMS
500
ITEM: BOX BOUNDS pp pp pp
0.0000000000000000e+00 1.4299999999999999e+01
0.0000000000000000e+00 1.4299999999999999e+01
0.0000000000000000e+00 1.4299999999999999e+01
ITEM: ATOMS id type xs ys zs fx fy fz
1 1 0 0 0 -0.000377212 -3.10862e-15 -4.96825e-15
2 1 0.1 0.1 0 -0.0188339 -2.77556e-16 -5.2458e-15
3 1 0.1 0 0.1 -0.0188339 -3.63598e-15 -6.80012e-16
4 1 0 0.1 0.1 -0.000377212 -1.33227e-15 0
5 1 0.2 0 0 -0.0361585 1.77722e-15 4.44957e-16
6 1 0.3 0.1 0 0.186607 -3.33067e-16 -2.22045e-16
7 1 0.3 0 0.1 0.186607 -1.77636e-15 1.77636e-15
8 1 0.2 0.1 0.1 -0.0361585 -1.69569e-15 6.7741e-16
9 1 0.403497 0 0 -0.683605 0 -2.66454e-15
10 1 0.5 0.1 0 0.642712 -2.55351e-15 1.11022e-15
11 1 0.5 0 0.1 0.642712 -8.88178e-16 2.22045e-15
12 1 0.403497 0.1 0.1 -0.683605 1.66533e-16 -1.7486e-15
13 1 0.6 0 0 -0.0677743 0 8.88178e-16
14 1 0.7 0.1 0 -0.0221516 -1.55431e-15 8.04912e-16
15 1 0.7 0 0.1 -0.0221516 -3.21965e-15 0
16 1 0.6 0.1 0.1 -0.0677743 4.44089e-16 3.08087e-15
17 1 0.8 0 0 -0.000418517 -4.56579e-15 -4.7462e-15
18 1 0.9 0.1 0 -1.33227e-15 -1.44329e-15 0
19 1 0.9 0 0.1 -8.88178e-16 -4.44089e-15 -2.05391e-15
20 1 0.8 0.1 0.1 -0.000418517 1.59595e-16 -2.00534e-15
21 1 0 0.2 0 -0.000377212 7.39686e-15 -3.9968e-15
22 1 0.1 0.3 0 -0.0188339 -2.63678e-15 -7.77156e-16
23 1 0.1 0.2 0.1 -0.0188339 5.71765e-15 4.996e-16
24 1 0 0.3 0.1 -0.000377212 -3.10862e-15 4.44089e-16
25 1 0.2 0.2 0 -0.0361585 3.1251e-15 1.77809e-15
26 1 0.3 0.3 0 0.186607 6.33391e-16 0
27 1 0.3 0.2 0.1 0.186607 2.21351e-15 2.13458e-15
28 1 0.2 0.3 0.1 -0.0361585 -1.90906e-15 4.69243e-16
29 1 0.403497 0.2 0 -0.683605 4.76008e-15 -1.77549e-15
30 1 0.5 0.3 0 0.642712 -4.25853e-15 1.77636e-15
31 1 0.5 0.2 0.1 0.642712 4.86416e-15 3.46684e-15
32 1 0.403497 0.3 0.1 -0.683605 -2.07234e-15 2.22045e-16
33 1 0.6 0.2 0 -0.0677743 3.41394e-15 8.67362e-19
34 1 0.7 0.3 0 -0.0221516 -2.44748e-15 2.9976e-15
35 1 0.7 0.2 0.1 -0.0221516 6.11924e-15 -8.58688e-17
36 1 0.6 0.3 0.1 -0.0677743 -9.82287e-16 -1.33227e-15
37 1 0.8 0.2 0 -0.000418517 6.4948e-15 -2.95597e-15
38 1 0.9 0.3 0 -4.44089e-16 -3.30291e-15 -3.10862e-15
39 1 0.9 0.2 0.1 -2.22045e-15 7.54952e-15 -1.13798e-15
40 1 0.8 0.3 0.1 -0.000418517 -1.49186e-15 2.08167e-17
41 1 0 0.4 0 -0.000377212 -2.06779e-15 -4.88498e-15
42 1 0.1 0.5 0 -0.0188339 5.57887e-15 -4.17721e-15
43 1 0.1 0.4 0.1 -0.0188339 -2.70617e-15 1.29063e-15
44 1 0 0.5 0.1 -0.000377212 4.44089e-15 -2.22045e-15
45 1 0.2 0.4 0 -0.0361585 -2.2083e-15 -1.77549e-15
46 1 0.3 0.5 0 0.186607 1.84119e-15 3.55271e-15
47 1 0.3 0.4 0.1 0.186607 -1.65341e-15 2.10942e-15
48 1 0.2 0.5 0.1 -0.0361585 6.09669e-15 -7.52003e-16
49 1 0.403497 0.4 0 -0.683605 -1.51181e-15 -1.77636e-15
50 1 0.5 0.5 0 0.642712 1.09034e-14 3.55271e-15
51 1 0.5 0.4 0.1 0.642712 -1.59963e-15 1.33227e-15
52 1 0.403497 0.5 0.1 -0.683605 1.13013e-14 -1.88738e-15
53 1 0.6 0.4 0 -0.0677743 -2.44119e-15 -3.55271e-15
54 1 0.7 0.5 0 -0.0221516 -6.39462e-16 2.9976e-15
55 1 0.7 0.4 0.1 -0.0221516 -5.42968e-16 -1.44329e-15
56 1 0.6 0.5 0.1 -0.0677743 1.02067e-15 1.11022e-15
57 1 0.8 0.4 0 -0.000418517 2.77556e-16 -3.1225e-15
58 1 0.9 0.5 0 0 1.77636e-15 1.77636e-15
59 1 0.9 0.4 0.1 -1.33227e-15 -4.44089e-16 -1.33227e-15
60 1 0.8 0.5 0.1 -0.000418517 2.10248e-15 5.75928e-16